<?xml version="1.0"?>
<VTKFile type="UnstructuredGrid" version="1.0" byte_order="LittleEndian" header_type="UInt64">
  <UnstructuredGrid>
    <Piece NumberOfPoints="58" NumberOfCells="57">
      <PointData>
        <DataArray type="UInt64" Name="bulk_node_ids" format="ascii" RangeMin="4610" RangeMax="33825">
          33185 33186 33187 33818 33188 33189
          33819 33190 4610 4611 4612 5383
          4613 4614 4615 5384 4616 4617
          4618 4619 4620 33191 33192 33193
          33194 33195 33196 33820 33197 33198
          33199 33200 33201 33821 33202 33203
          33204 33205 33206 33822 33823 33207
          33208 33209 33824 33825 33210 33211
          33212 33213 33214 33215 33216 33217
          33218 33219 33220 33221
        </DataArray>
      </PointData>
      <CellData>
        <DataArray type="UInt64" Name="bulk_element_ids" format="ascii" RangeMin="585" RangeMax="68039">
          66178 66179 65861 64883 64691 67102
          67100 63489 585 585 4861 4418
          4424 4307 4302 3286 3021 3020
          3536 3537 62387 62387 66986 66984
          62476 62476 66906 65066 67136 65053
          64031 64032 64317 67578 62269 64755
          65245 66139 66664 66529 63835 68039
          63134 63133 66767 67638 64345 66040
          62468 63377 65029 64472 62272 65015
          62625 62820 62820
        </DataArray>
        <DataArray type="UInt8" Name="vtkGhostType" format="ascii" RangeMin="0" RangeMax="0">
          0 0 0 0 0 0
          0 0 0 0 0 0
          0 0 0 0 0 0
          0 0 0 0 0 0
          0 0 0 0 0 0
          0 0 0 0 0 0
          0 0 0 0 0 0
          0 0 0 0 0 0
          0 0 0 0 0 0
          0 0 0
        </DataArray>
      </CellData>
      <Points>
        <DataArray type="Float64" Name="Points" NumberOfComponents="3" format="ascii" RangeMin="5646485.13094345" RangeMax="5672431.5619773595">
          882083.795641437 5596341.16039506 120.20779098022128 884506.44138617 5595910.46781822 124.9368811706421
          886417.639695903 5596448.83353927 75.0309285547502 889257.5188744336 5598117.76727452 123.71597168015442
          892097.398052998 5599786.70100979 98.62699366958725 895273.755807203 5600486.57644716 83.02092022812428
          897922.877994897 5600486.57644716 75.46957065449226 900572.000182682 5600486.57644716 69.56322953979921
          901329.899900242 5597884.74948032 57.47608280610658 904185.048875237 5597935.50874535 53.70718722680335
          903866.843290922 5596588.36251138 47 906428.9178534956 5597064.30527657 47.45399770827592
          908990.992416069 5597540.24804176 36.229350021892735 910346.386070132 5595897.35720845 32.79349942646738
          911167.729751951 5596481.19483466 31.973588103598825 916065.9901689645 5595597.541761009 31.44401329244633
          920964.250586022 5594713.88868735 22.355554749399403 925043.087216524 5592782.01621127 22.638771214194684
          924976.227853849 5591772.11004062 22.238266139065495 927075.967667194 5590094.61353416 21.678542441942223
          926482.536925052 5588492.08060783 18.468322431318484 927647.399777137 5587858.93961057 20.153840666268934
          926418.486965577 5587150.86877985 16.053997827465494 927188.107896197 5585932.75909655 19.97699031516209
          926178.984238926 5584595.14633499 16.666975048308746 927905.663828617 5583703.09613573 18.548581307816967
          927373.971378782 5582148.7643751 14.810667224495436 928821.9708000524 5579644.01886959 15.744054244151439
          930269.970221323 5577139.27336408 15.834494880432212 933458.506734608 5573813.10813117 9.91730579416393
          936277.935520497 5572770.88105255 13.085362147851257 939409.698262929 5570733.18461319 11.116073702881863
          939866.935053343 5569565.41816338 10.663387064386537 942205.981691574 5568383.180339594 21.487689523888996
          944545.028329805 5567200.94251581 10.615931651919363 947022.048242637 5566501.91538526 10.955748597241238
          949393.630546149 5568353.95319254 12.696327984949525 953664.207435929 5568787.36380425 4.859814259185267
          956768.031272307 5567173.01988495 3.432924948667164 960842.3620280774 5566700.281834414 5.937315913631892
          964916.6927838717 5566227.543783875 3 968991.023539642 5565754.80573334 4.126940457655223
          971811.808322297 5567123.69782412 4.731664822528398 972904.129001265 5568512.89696643 6.104699126621058
          976182.563188076 5569271.25139679 3.3509193218108306 979460.997374807 5570029.60582713 1.0814727491904805
          982739.431561618 5570787.96025749 1.1095672764326991 985636.569709407 5569746.29542803 1.5494743578961077
          989005.828751821 5570511.56096333 2.3554164666818522 992248.652217043 5569706.17241808 1.9612433227926092
          996847.47884027 5570596.18952676 -2.1457718713496607 1000322.61739074 5568586.35977536 2.585820756991103
          1002801.58332598 5568433.34836454 -0.5414797315035171 1006821.73527058 5566713.95230814 -3.3641898648713604
          1010826.67428706 5567931.93896131 -1.7722441547587096 1012206.5819013 5569072.55046387 -1.8420569634473094
          1012020.23738528 5570616.77181921 -3.419050458880065 1014339.54697018 5569789.67007881 0
          <InformationKey name="L2_NORM_RANGE" location="vtkDataArray" length="2">
            <Value index="0">
              5646485.1309
            </Value>
            <Value index="1">
              5672431.562
            </Value>
          </InformationKey>
        </DataArray>
      </Points>
      <Cells>
        <DataArray type="Int64" Name="connectivity" format="ascii" RangeMin="0" RangeMax="57">
          0 1 1 2 2 3
          3 4 4 5 5 6
          6 7 7 8 8 9
          9 10 10 11 11 12
          12 13 13 14 14 15
          15 16 16 17 17 18
          18 19 19 20 20 21
          21 22 22 23 23 24
          24 25 25 26 26 27
          27 28 28 29 29 30
          30 31 31 32 32 33
          33 34 34 35 35 36
          36 37 37 38 38 39
          39 40 40 41 41 42
          42 43 43 44 44 45
          45 46 46 47 47 48
          48 49 49 50 50 51
          51 52 52 53 53 54
          54 55 55 56 56 57
        </DataArray>
        <DataArray type="Int64" Name="offsets" format="ascii" RangeMin="2" RangeMax="114">
          2 4 6 8 10 12
          14 16 18 20 22 24
          26 28 30 32 34 36
          38 40 42 44 46 48
          50 52 54 56 58 60
          62 64 66 68 70 72
          74 76 78 80 82 84
          86 88 90 92 94 96
          98 100 102 104 106 108
          110 112 114
        </DataArray>
        <DataArray type="UInt8" Name="types" format="ascii" RangeMin="3" RangeMax="3">
          3 3 3 3 3 3
          3 3 3 3 3 3
          3 3 3 3 3 3
          3 3 3 3 3 3
          3 3 3 3 3 3
          3 3 3 3 3 3
          3 3 3 3 3 3
          3 3 3 3 3 3
          3 3 3 3 3 3
          3 3 3
        </DataArray>
      </Cells>
    </Piece>
  </UnstructuredGrid>
</VTKFile>
